ITEM: TIMESTEP
830000
ITEM: NUMBER OF ATOMS
4624
ITEM: BOX BOUNDS xy xz yz pp pp pp
6.8007801692389691e-01 3.3590212357875032e+01 0.0000000000000000e+00
7.1584100856133190e+00 3.2950266824784762e+01 0.0000000000000000e+00
-3.2939513252732553e+00 4.1461576752473022e+01 0.0000000000000000e+00
ITEM: ATOMS id type x y z
2 1 8.06252 18.2466 16.8062
3 1 5.1149 20.9903 20.562
5 1 5.48314 16.1558 14.9059
6 1 1.86358 21.7983 8.31055
8 1 3.53716 23.2499 21.1647
9 1 9.34533 27.2566 15.1783
12 1 2.3842 17.7228 17.5434
14 1 1.60379 23.6097 19.072
15 1 12.39 25.0027 17.2028
16 1 31.2061 22.4546 13.1267
17 1 29.3567 22.4537 11.4957
18 1 8.83788 22.4654 17.9284
19 1 33.0285 25.4871 18.9694
20 1 2.52407 28.8206 16.1747
21 1 7.1036 19.1407 12.6977
22 1 2.31001 15.3552 20.2136
23 1 10.6392 15.1039 12.0573
25 1 1.08211 19.6097 17.1812
26 1 4.45017 24.3646 18.7629
27 1 4.99952 17.6848 16.927
28 1 10.9517 21.8064 11.4915
29 1 9.84269 23.0583 15.6615
30 1 2.89819 24.1973 7.44719
32 1 32.9674 16.98 17.3715
36 1 6.73397 30.3919 13.4286
37 1 6.12352 19.6806 17.212
38 1 32.1655 23.1992 10.9887
40 1 33.1364 20.4799 13.1739
42 1 13.4825 22.248 10.8797
43 1 1.25656 22.949 12.63
44 1 4.54882 25.6623 11.7352
45 1 5.43922 24.7228 16.1329
46 1 7.16975 26.3766 19.9688
47 1 31.9441 13.9219 17.6493
48 1 8.67836 26.7354 21.3408
49 1 12.449 18.5388 9.61479
50 1 6.23673 8.31212 17.0092
51 1 32.4504 25.1571 12.6427
52 1 5.40389 26.2776 18.214
53 1 9.04106 13.0871 8.8572
54 1 0.778328 16.6111 19.6499
56 1 29.4327 24.3268 12.9996
57 1 3.1677 26.2921 9.83387
59 1 7.33068 26.1572 11.0947
60 1 9.08138 23.7582 11.5767
61 1 28.6752 23.746 16.2063
62 1 1.91285 20.3562 15.0957
64 1 21.4304 10.0222 6.49624
65 1 8.95285 18.809 14.3789
67 1 33.3468 25.4475 10.3049
69 1 1.11883 17.6234 15.2099
70 1 2.85793 20.5799 21.0346
71 1 5.89293 18.4618 15.0567
72 1 8.44573 23.1875 21.9195
73 1 10.9868 20.3334 17.9552
74 1 0.857667 25.8175 7.58138
75 1 33.5535 20.8929 22.154
76 1 9.79215 17.6221 9.88373
77 1 4.5586 20.5632 15.0606
78 1 10.3864 19.8304 19.729
79 1 30.4356 19.9174 13.4793
80 1 5.43313 31.5001 17.0052
81 1 12.303 19.8295 11.7079
82 1 8.09276 23.3329 13.8699
83 1 28.4458 21.4618 13.7449
84 1 10.8156 25.5472 15.2582
85 1 10.9798 24.6261 19.713
86 1 3.75579 18.2476 15.1053
87 1 32.1478 20.1051 25.6812
88 1 4.71558 18.7473 12.6845
89 1 6.4129 22.0404 10.173
90 1 1.64183 23.4635 10.4641
91 1 10.7423 16.6026 14.3006
92 1 10.3298 20.1821 9.58537
95 1 5.57847 18.987 19.4854
96 1 10.6172 18.3543 16.2059
97 1 6.48258 29.0715 18.1161
99 1 3.73752 26.7367 7.17594
100 1 3.6441 21.8266 19.0017
101 1 6.10984 22.0642 18.4662
102 1 5.21121 28.9392 15.5398
103 1 9.6112 19.3204 11.9814
104 1 7.97334 19.139 18.8276
106 1 8.55974 16.9436 12.3394
107 1 8.48117 28.9301 11.109
108 1 9.86135 24.6215 9.2377
109 1 2.0533 16.5517 10.9488
110 1 6.98589 24.5095 18.1029
111 1 3.52293 14.5219 10.9461
112 1 0.864087 21.2011 19.4209
113 1 9.64019 21.2288 13.9919
114 1 6.57465 25.6715 13.8286
115 1 7.09627 22.6409 16.3251
116 1 6.39473 20.3011 7.91787
117 1 6.41346 23.7142 11.9828
118 1 4.8361 19.5968 5.90836
119 1 29.9386 26.6517 14.6977
120 1 10.0537 25.0085 17.7039
121 1 13.7923 24.4757 18.9945
122 1 5.94409 28.1526 11.1328
123 1 2.45386 27.2908 14.1885
124 1 32.7886 19.189 20.0518
125 1 11.8592 26.7804 12.142
126 1 4.65009 25.8966 20.8789
127 1 30.5578 15.9484 18.3168
129 1 3.8006 19.9552 17.466
130 1 13.8115 19.2004 13.2087
131 1 6.24016 23.5465 20.6855
132 1 13.5257 25.4119 15.3152
133 1 2.75782 24.2849 16.6504
134 1 31.0231 24.4069 14.6649
135 1 3.91072 19.5869 8.51375
136 1 10.841 23.6686 13.3493
137 1 9.85063 26.1233 11.1472
138 1 13.3264 24.4967 12.5704
139 1 31.8267 21.689 17.4364
140 1 31.7253 20.5564 10.8411
141 1 6.57625 27.2384 15.7991
142 1 33.2128 18.2511 11.2116
143 1 32.8112 24.1359 16.7235
144 1 7.29795 21.2 14.4581
148 1 32.8528 22.0843 14.8713
149 1 7.83948 21.3903 12.1378
150 1 29.6459 18.888 16.2024
151 1 30.0108 21.8152 15.5483
152 1 1.36507 21.0733 10.7478
153 1 27.3341 24.0636 13.6682
154 1 5.77391 22.1223 22.6309
155 1 10.3214 22.107 20.1465
156 1 1.80951 20.0084 6.50805
158 1 6.86542 17.5229 10.0508
159 1 0.965359 15.8855 13.4913
161 1 2.10016 18.6116 13.0502
162 1 3.70821 23.4726 12.3061
163 1 2.59656 25.8937 18.7829
164 1 1.2174 24.817 14.563
165 1 2.64795 21.7509 5.45025
166 1 8.12644 26.7333 17.3532
167 1 4.4878 22.4428 16.6193
168 1 3.68176 26.8235 16.2514
169 1 3.97015 25.1205 14.236
170 1 10.8865 17.153 11.5839
171 1 30.8667 27.0898 12.1958
172 1 32.8289 23.491 8.42048
173 1 32.5279 21.2022 8.83748
174 1 11.5875 18.8075 13.6056
175 1 1.34023 25.3559 21.2133
176 1 7.69674 29.5698 15.4173
177 1 5.6071 28.0826 20.0663
178 1 4.38719 15.4001 16.9741
179 1 3.62077 31.2805 15.4739
180 1 1.64966 22.0387 17.0926
181 1 2.06071 25.3553 12.4155
182 1 31.004 15.9966 14.0553
183 1 30.6045 23.4348 9.43045
184 1 7.52782 31.0286 17.2574
185 1 1.38925 19.3275 8.68603
187 1 2.95866 22.4486 14.5675
188 1 13.475 18.7815 15.6585
189 1 3.2091 28.1267 11.6545
190 1 13.4996 20.3645 17.522
191 1 3.34223 31.0578 18.4431
192 1 30.0789 23.6757 17.5196
193 1 1.12046 22.9682 21.1805
194 1 3.59155 16.2331 13.1205
195 1 7.49203 27.8341 13.3485
196 1 6.1009 16.4852 12.7482
197 1 31.0348 17.0749 15.9909
198 1 4.49724 22.0952 8.00875
199 1 25.4781 7.62579 25.9814
200 1 1.31297 26.0732 16.5423
201 1 4.38142 16.8478 10.6112
202 1 32.4005 26.927 14.6017
203 1 10.8355 27.4026 17.0978
204 1 30.4777 25.3713 11.0542
206 1 3.57176 29.4753 13.8339
207 1 31.6453 18.4628 18.192
208 1 11.7485 22.8056 8.88692
209 1 30.6867 20.7534 19.658
210 1 0.756488 29.0317 14.1711
212 1 5.31523 23.3119 14.4255
213 1 12.6584 21.5898 13.4523
214 1 32.8661 16.6753 23.5242
215 1 2.79633 19.1358 10.6223
216 1 11.8078 27.9564 15.1177
217 1 8.27309 24.9859 15.8958
218 1 11.6924 21.0613 15.6475
219 1 6.70398 25.2463 22.3587
220 1 9.13322 25.612 13.3536
221 1 7.79723 11.162 18.8396
222 1 10.7957 26.9417 19.8327
223 1 9.05487 22.2815 9.33573
224 1 7.3574 24.3243 9.24887
227 1 2.03202 30.7725 16.7532
228 1 4.51978 24.0557 9.76762
229 1 3.76567 28.4635 18.0945
230 1 13.6166 15.832 25.9713
232 1 31.9315 19.9513 15.393
233 1 31.3081 25.3755 8.0295
234 1 3.75782 21.5143 10.3535
235 1 32.8233 22.4887 6.402
236 1 30.1933 18.3236 21.2268
237 1 32.1762 22.9664 19.2383
238 1 7.98504 19.6723 9.83059
239 1 4.77023 27.461 13.7511
240 1 33.3413 27.4682 11.6161
242 1 8.8946 24.394 19.9188
245 1 9.14493 20.6373 16.5008
247 1 0.954607 28.0363 18.3399
248 1 32.2236 18.3637 13.5795
251 1 5.45045 21.0111 12.3097
252 1 7.15893 22.3831 7.33387
253 1 12.5318 23.175 15.2969
254 1 8.04499 16.4656 14.8619
256 1 5.48428 24.3332 7.27841
257 2 9.5469 16.1626 10.9325
258 2 29.511 22.9556 14.2553
261 2 10.995 22.4579 14.5362
262 2 6.55586 28.7927 14.3515
264 2 31.8574 15.7349 16.7822
265 2 4.16111 19.9432 11.6167
266 2 33.4087 22.2388 9.67047
267 2 1.8737 23.001 6.52344
268 2 10.2227 25.5312 20.9538
269 2 2.41262 27.4049 17.5037
270 2 6.78791 25.8665 16.9615
271 2 2.6876 24.5771 20.062
272 2 32.1313 26.5279 11.1569
273 2 0.794816 26.1025 13.3725
274 2 32.7966 24.2932 6.94716
277 2 30.7022 20.0984 16.7884
278 2 9.11059 18.8251 8.90267
280 2 33.4845 19.3527 14.3923
282 2 6.1769 24.4015 5.70332
283 2 2.22938 17.6205 20.6824
285 2 2.80507 18.8513 7.50455
286 2 31.6308 19.2332 12.112
287 2 12.7312 19.9902 14.714
288 2 5.86084 21.9291 15.552
289 2 31.1227 19.8052 7.96803
291 2 30.3281 19.3061 10.4057
292 2 3.72234 26.4573 12.9524
293 2 30.6628 22.3702 18.6196
295 2 3.21242 24.7416 11.1906
296 2 0.693882 29.1881 11.2422
298 2 3.22598 22.9124 8.92663
299 2 6.0828 26.8827 21.0688
300 2 10.7737 25.089 12.1628
301 2 4.25717 25.3005 17.4611
303 2 7.69812 24.7955 12.7601
305 2 8.45809 23.4844 8.14457
306 2 29.1486 20.4173 15.078
307 2 29.9419 18.9364 19.3402
308 2 33.4702 22.5854 18.1867
311 2 4.445 22.0977 13.2594
312 2 31.1352 27.715 15.6202
313 2 6.73542 24.2678 15.1395
314 2 29.2639 22.7617 8.58826
316 2 6.56014 17.1055 15.7947
318 2 1.54504 24.2278 8.82673
319 2 31.0412 23.8664 12.1503
320 2 31.3793 22.9945 15.8714
321 2 6.7918 29.316 11.864
324 2 8.31374 23.7203 16.7233
325 2 18.0351 7.71978 26.3104
326 2 3.77028 28.2689 15.0713
327 2 6.7661 20.3209 19.3726
329 2 6.7214 27.622 18.7992
330 2 8.62876 25.5464 18.7479
331 2 4.58129 25.12 5.95811
333 2 10.4248 21.631 16.9468
335 2 6.44792 19.031 9.17237
336 2 30.0782 25.0228 16.1723
337 2 5.51579 18.7356 7.31133
338 2 5.1988 17.4622 13.8122
339 2 11.1166 20.6442 12.8228
340 2 2.44714 20.3443 9.48647
342 2 8.8435 15.6542 13.7101
343 2 31.7509 17.149 19.8834
344 2 31.7931 22.1372 7.86852
345 2 7.62208 20.9815 8.97994
346 2 10.3527 23.311 21.1841
347 2 8.18421 18.4685 11.1823
348 2 11.2023 24.1292 16.2222
349 2 10.2019 17.8107 13.0502
350 2 3.00324 15.8784 9.93724
351 2 11.371 25.8971 18.5596
352 2 13.8281 22.2106 14.4709
353 2 33.0318 15.3694 18.4353
355 2 4.98268 21.0421 17.4836
357 2 4.20722 23.0784 6.69638
358 2 9.24457 21.1655 18.9151
359 2 2.14658 26.7186 8.47312
360 2 31.8005 24.2612 18.165
361 2 29.0585 24.0266 10.4154
362 2 29.9537 21.155 12.4396
363 2 5.2286 26.3848 15.1827
364 2 4.00638 20.197 19.6142
365 2 8.07208 28.162 16.3514
367 2 7.85395 26.3024 14.7533
368 2 6.11939 26.8438 12.4811
369 2 2.48125 25.5444 6.32068
371 2 3.94144 29.9171 16.8847
372 2 5.18875 27.9574 17.3091
373 2 9.27038 20.7922 10.7855
374 2 4.47729 18.6014 20.941
375 2 7.59547 17.8183 13.7732
376 2 2.29364 15.1361 12.4183
377 2 33.0221 21.7709 11.7352
378 2 2.84594 16.2395 18.7906
380 2 5.80154 20.0162 13.8721
381 2 32.2493 28.2188 12.9029
382 2 2.37029 18.7691 16.0956
383 2 1.72634 16.2812 16.6757
384 2 7.49705 23.1011 19.1939
387 2 5.23558 20.7025 9.21238
388 2 2.12777 20.6521 18.0263
390 2 12.1139 17.7616 14.908
391 2 4.90729 24.5249 13.1555
392 2 1.93476 26.6479 11.1362
393 2 9.395 26.1839 16.6356
394 2 6.79076 15.259 14.0257
395 2 5.74642 21.4911 6.8638
396 2 1.39706 24.9197 17.7928
397 2 13.64 20.656 12.2998
398 2 6.67198 22.3226 13.1163
399 2 2.52172 25.8269 15.2829
400 2 10.3927 23.345 10.2237
401 2 1.16558 26.5422 19.7207
403 2 11.9188 21.1779 19.0568
405 2 3.2872 17.7372 12.3122
406 2 3.93081 27.1946 19.4021
409 2 11.5965 17.463 8.77543
410 2 13.654 20.05 9.98583
411 2 8.48994 22.2038 15.1174
412 2 32.4825 23.6522 13.6523
413 2 8.00627 22.7459 10.6908
414 2 4.87964 22.9266 19.8276
415 2 1.26161 19.8908 20.5281
416 2 10.0247 23.4875 18.9638
417 2 10.2404 19.6107 15.1403
419 2 8.68114 27.2372 12.0117
421 2 27.6828 25.4413 12.4737
422 2 5.92615 25.2729 19.5853
423 2 10.6918 26.769 14.0569
424 2 32.2501 18.4427 16.6341
425 2 4.06959 28.4463 21.1976
426 2 1.59131 19.8995 12.0039
428 2 6.56211 20.4549 11.1207
429 2 4.07752 25.4591 8.59283
430 2 28.1378 19.1305 17.3824
431 2 30.5584 18.3888 14.6284
432 2 5.9883 23.228 8.48949
433 2 33.1318 17.991 7.78032
434 2 33.4064 21.0511 16.1518
436 2 31.4219 19.7038 21.2753
437 2 30.9639 25.8268 13.3847
438 2 4.84041 29.5299 18.9678
439 2 10.4076 21.647 7.97722
441 2 27.604 22.2345 15.1103
443 2 14.3591 24.0973 13.8856
445 2 2.65619 22.2458 11.5345
448 2 2.46626 17.0057 13.9916
450 2 3.05009 21.3166 15.8101
452 2 3.83086 23.9783 15.4743
454 2 3.67305 20.8722 7.00991
455 2 1.26125 23.3858 15.7924
456 2 3.27157 19.4838 13.8866
458 2 32.683 25.3523 15.6011
460 2 33.0746 19.6528 9.96725
461 2 9.02986 21.4286 21.0464
462 2 5.75496 17.9263 11.4359
463 2 7.5371 21.2169 17.4835
464 2 0.799861 24.3104 11.6204
466 2 5.52791 23.5614 17.4856
467 2 5.16935 22.6948 11.3862
468 2 9.57041 22.7086 12.8267
470 2 12.0971 22.9824 12.1479
471 2 5.0981 30.8286 14.4892
472 2 29.0152 21.8807 16.9227
475 2 4.1442 20.9069 22.2792
479 2 3.87959 18.3186 18.2284
481 2 11.8949 21.0902 10.3004
482 2 6.19612 24.886 10.5223
484 2 31.7012 21.0886 14.1358
485 2 12.1737 24.6813 14.3211
486 2 2.12398 22.1778 20.0925
487 2 8.61594 28.7196 14.0595
488 2 8.47719 20.0936 13.4696
489 2 7.37189 15.6398 11.6398
490 2 9.55891 19.2474 17.5564
491 2 2.14432 28.7781 13.1201
492 2 7.39232 19.4903 15.6974
494 2 1.07717 27.7519 15.4831
495 2 11.9339 18.6808 19.422
496 2 4.65314 19.2471 16.0842
497 2 1.51929 21.7314 13.9903
502 2 3.03183 23.0777 17.8425
503 2 1.10444 18.0701 18.6722
504 2 32.4612 20.3199 18.5709
505 2 4.20593 18.509 9.67241
506 2 12.4862 17.883 12.2375
507 2 7.01313 27.6254 9.98127
509 2 4.01844 16.7721 15.8861
510 2 1.23029 14.3521 15.913
511 2 6.49254 21.6457 21.0369
527 3 22.1181 7.29616 10.3374
534 3 23.4269 12.1109 14.2246
541 3 26.6969 26.6362 17.8195
551 3 32.0386 20.9417 23.6356
553 3 25.453 21.4115 14.8744
570 3 19.5738 11.1291 13.3598
613 3 9.98061 29.6287 4.23262
635 3 12.1415 12.4681 6.76905
636 3 32.711 19.5899 29.4271
646 3 14.987 31.6277 8.37268
648 3 23.9148 19.4535 29.3
655 3 10.2326 29.3617 1.71532
660 3 24.2906 12.6578 11.6293
664 3 14.9008 17.0836 27.5705
670 3 9.31469 32.856 13.3882
689 3 16.5463 29.8244 16.3776
693 3 15.4717 30.0138 5.40392
698 3 31.8671 11.9891 3.13456
732 3 18.1647 7.20007 19.3584
753 3 33.0156 8.29099 22.3809
754 3 3.00544 19.4697 4.76801
759 3 11.745 31.2347 10.2674
792 3 12.7344 12.0023 13.8974
802 3 30.0953 14.0292 25.1155
836 3 27.8317 17.3827 -1.668
843 3 23.1053 14.283 11.4795
845 3 23.8026 20.5635 -0.400578
889 3 5.15796 11.8937 13.1167
972 3 10.0898 11.4028 26.1409
1025 3 32.5557 15.6707 11.5891
1029 3 23.1269 25.0251 20.9638
1048 3 5.41744 30.5659 -0.118812
1051 3 27.9178 10.3876 17.6968
1085 3 17.075 28.9742 2.42081
1154 3 26.4108 9.91849 3.10424
1165 3 19.9389 7.99043 19.059
1166 3 25.7282 21.6279 19.1983
1200 3 25.6355 13.8469 6.97333
1204 3 29.5004 31.6809 16.6233
1208 3 23.4661 10.4576 1.31994
1230 3 8.32464 15.5119 9.24568
1250 3 20.0486 8.48859 22.7747
1254 3 26.2958 31.8118 10.2779
1260 3 32.5706 9.92422 1.97355
1265 3 17.5778 15.3309 8.14807
1336 3 26.2342 11.9512 6.02741
1365 3 1.52912 15.3676 29.2792
1369 3 27.5098 25.7408 2.09539
1385 3 31.9776 27.6973 4.21327
1395 3 1.10119 15.923 -0.178957
1428 3 20.1773 28.1012 26.393
1491 3 15.9202 21.255 20.6665
1530 3 13.9936 25.4294 25.1377
1536 3 7.98034 7.99721 11.7052
1556 3 26.9876 27.5315 5.86538
1563 3 23.4543 30.655 26.3497
1565 3 20.1041 21.4318 8.31094
1604 3 26.4371 19.6812 8.88731
1610 3 11.0983 26.6932 6.05056
1612 3 20.2066 24.566 23.8288
1623 3 3.08593 26.9006 22.2171
1646 3 8.19409 28.4988 19.4089
1685 3 26.68 29.5949 16.612
1693 3 13.2711 10.351 7.20333
1694 3 20.8983 11.9446 16.9985
1697 3 30.0261 9.60478 9.39991
1734 3 13.5875 31.3434 16.7722
1740 3 11.1175 10.9524 13.6875
1763 3 29.1051 15.904 24.0736
1771 3 20.4893 29.8793 10.4994
1781 3 17.1661 28.2165 17.2077
1806 3 11.6308 22.744 6.74286
1809 3 24.6163 21.7112 23.5686
1821 3 21.5136 8.07032 6.84364
1878 3 24.365 28.0302 9.45095
1890 3 10.6003 14.1161 4.79551
1909 3 16.3231 8.97708 6.33815
1916 3 12.0876 21.9487 23.6097
1921 3 31.6974 8.61578 8.31302
1933 3 26.7246 24.0705 6.07467
1953 3 20.5048 23.1051 18.7033
1995 3 27.6558 29.0859 20.0794
1998 3 11.9689 15.8805 10.0401
2011 3 20.2894 18.5908 27.2879
2016 3 9.69334 25.2319 5.01847
2026 3 18.8734 32.276 5.15297
2034 3 16.7816 13.7053 25.8092
2037 3 8.75875 9.97544 3.85542
2086 3 23.2044 17.0561 26.8736
2120 3 13.8631 32.9015 15.4063
2142 3 28.0784 7.73761 17.7321
2145 3 18.2322 27.9476 27.245
2148 3 9.36188 29.8448 20.0094
2164 3 8.46563 24.1367 24.2006
2188 3 26.1325 27.2044 4.09244
2202 3 3.52891 29.2977 7.45891
2226 3 0.773839 8.08829 9.212
2251 3 29.4899 20.171 27.5261
2253 3 25.1646 19.3146 22.268
2290 3 32.718 32.2812 18.3469
2303 3 27.771 12.4379 21.3325
2309 3 30.1356 19.945 6.3031
2313 3 2.1456 31.2542 4.22665
2322 3 18.6372 29.6527 15.4925
2325 3 20.4987 11.1599 0.797468
2335 3 4.02745 8.50306 8.08898
2343 3 11.0539 32.5416 6.44935
2360 3 17.8579 20.6918 25.7396
2364 3 27.826 27.473 1.27162
2366 3 1.86685 11.5368 23.8391
2387 3 29.1134 21.7958 7.02809
2396 3 25.8876 19.5737 20.4696
2435 3 16.5171 29.9433 21.2246
2438 3 9.62126 32.6886 11.5024
2457 3 22.9976 16.2704 24.6046
2527 3 4.08439 29.0768 9.43308
2530 3 24.477 7.55531 8.90953
2536 3 32.1512 17.859 4.18301
2537 3 16.272 13.0854 23.5541
2540 3 21.6972 21.7336 28.566
2550 3 10.2433 16.4475 8.25393
2622 3 2.69835 9.79645 29.1149
2657 3 23.1385 10.7683 24.1276
2666 3 31.3342 12.3867 5.60347
2674 3 29.094 29.8268 16.026
2676 3 15.5447 22.7374 9.22043
2691 3 3.11317 12.7384 8.46203
2702 3 16.9181 30.0489 18.7404
2708 3 5.26314 31.6102 12.7131
2746 3 16.9371 31.2797 14.6253
2780 3 28.3407 22.7807 27.0461
2783 3 12.6275 20.417 4.39276
2789 3 15.8789 8.20377 4.66166
2793 3 30.2993 23.2339 25.1908
2795 3 23.2555 23.3073 7.45747
2826 3 5.21629 27.9768 2.15972
2831 3 7.00458 19.0287 20.9752
2852 3 26.3424 30.083 1.00309
2860 3 8.70465 25.9253 3.23943
2879 3 24.5753 17.4639 20.231
2886 3 1.78771 12.5307 22.0251
2931 3 21.7835 13.3457 3.9292
2935 3 3.147 30.1114 11.9123
2954 3 19.1119 27.7149 24.0537
2962 3 7.49021 27.33 23.1686
3013 3 26.2251 18.2688 23.3655
3044 3 3.61152 8.87831 21.2825
3055 3 18.6351 28.1336 3.8261
3085 3 33.2527 31.9192 9.14742
3109 3 32.006 25.8613 21.0335
3117 3 4.04094 14.5686 18.9114
3124 3 18.344 17.0181 15.9793
3165 3 1.78175 13.3989 30.125
3167 3 29.3011 30.8703 24.1817
3190 3 32.5568 32.8357 7.03883
3204 3 30.4716 10.4973 12.6979
3216 3 11.6644 25.8141 26.0133
3238 3 0.944912 12.3842 12.1408
3247 3 21.3244 15.2834 10.3639
3259 3 24.481 32.317 13.9889
3306 3 6.05896 18.3655 25.2431
3331 3 25.2719 13.6997 30.3857
3343 3 12.9433 31.2212 21.1481
3384 3 31.3337 31.6369 8.20579
3393 3 0.722672 12.2902 17.3236
3423 3 21.0842 17.3733 25.6545
3454 3 17.8202 15.9649 10.2438
3466 3 23.006 12.1278 16.2233
3469 3 20.4456 9.57778 12.4854
3491 3 28.7447 30.9185 2.7573
3496 3 31.0315 13.2662 1.37937
3497 3 14.5758 21.6778 5.00116
3500 3 4.74953 9.311 19.4144
3509 3 10.4241 25.0368 0.0470189
3525 3 32.6284 26.7404 2.52018
3535 3 26.2768 20.4799 11.2153
3555 3 25.8524 19.636 0.402707
3599 3 10.3794 14.4312 24.0202
3608 3 32.7727 18.306 27.543
3615 3 14.5553 26.6633 17.9864
3662 3 15.9776 16.2418 10.6123
3666 3 8.23058 8.75208 18.173
3676 3 15.7814 12.4731 11.7341
3693 3 14.8212 26.6044 26.8039
3707 3 19.4983 23.3088 8.04477
3711 3 2.07569 31.1584 23.9668
3758 3 16.9095 24.3106 5.35805
3778 3 14.2144 9.21311 6.02141
3780 3 5.62048 32.4236 15.1903
3796 3 15.1255 31.9988 3.89367
3801 3 12.0383 31.5986 15.3038
3817 3 10.5986 10.9632 23.7283
3834 3 32.3768 12.6637 22.4975
3853 3 28.2452 19.0352 19.9975
3863 3 14.7112 7.50103 12.0657
3874 3 29.763 18.0163 11.9097
3883 3 15.0245 31.0939 12.4781
3938 3 29.3668 11.782 4.22743
3941 3 15.2387 16.203 12.7817
3953 3 28.3191 17.9721 21.8604
3955 3 26.3356 27.4861 15.8953
3963 3 26.3802 14.5979 2.98679
3973 3 4.49987 13.8638 15.4905
3980 3 6.3081 16.0737 -3.12117
3989 3 13.3102 28.0202 -0.40266
3995 3 27.7823 20.6749 28.4081
4000 3 9.60117 9.64559 19.6901
4013 3 26.0027 25.0489 11.3293
4023 3 12.5502 24.1464 -1.70968
4050 3 7.29278 30.9133 23.0491
4062 3 33.0944 16.1078 3.91266
4067 3 11.3982 16.1485 6.08851
4072 3 6.48889 20.4103 23.9566
4074 3 1.95618 11.3573 30.321
4100 3 4.79696 28.5915 5.17585
4101 3 10.9855 12.2957 15.4964
4107 3 10.1419 22.5768 23.455
4112 3 15.0353 31.8821 20.7358
4128 3 26.6682 8.26678 7.06683
4132 3 3.77626 10.7616 1.84561
4142 3 31.4817 17.2366 -2.30542
4175 3 24.771 15.6266 13.2578
4217 3 15.2329 26.2543 14.5642
4237 3 28.7122 16.612 12.8943
4238 3 9.89025 22.9402 27.3093
4255 3 5.88142 17.3129 21.5885
4264 3 10.0667 10.7912 9.61795
4284 3 8.37003 7.97747 20.6662
4291 3 17.2561 23.7876 25.8697
4299 3 21.5585 27.7828 10.421
4303 3 6.83708 12.9416 28.0367
4322 3 15.9635 23.0662 21.8051
4362 3 23.0085 16.4168 19.5731
4364 3 21.1352 17.4928 13.8964
4405 3 29.7944 17.1966 4.45447
4425 3 24.4822 8.61666 12.7198
4428 3 24.6069 9.75959 19.4127
4447 3 2.04937 10.9658 17.4358
4454 3 19.3439 20.6619 16.164
4459 3 9.17812 30.6408 12.9226
4479 3 15.1908 24.2318 7.05509
4494 3 10.8628 31.8742 24.9306
4501 3 23.6951 22.7483 13.3301
4509 3 27.339 23.7329 9.7719
4514 3 21.5287 11.5066 8.71336
4519 3 18.0777 13.5289 9.13047
4528 3 18.3264 10.9745 1.81553
4536 3 17.5697 30.8817 5.64952
4546 3 5.06381 15.3372 22.6135
4573 3 20.7688 31.9404 23.2823
4588 3 24.2265 26.9796 11.3873
4590 3 27.5031 17.8443 8.72153
4595 3 8.02265 19.1657 23.3242
4598 3 23.475 28.9898 11.2392
4612 4 24.4786 16.3239 15.3343
4614 4 26.7474 17.1658 13.6896
4620 4 6.30734 14.9151 10.0789
4622 4 13.7686 18.1236 19.7747
2024 3 22.9727 8.59374 2.14745
449 2 33.0039 17.8585 21.8354
4119 3 29.2926 11.2435 22.8147
2600 3 20.0473 7.23355 26.6189
4554 3 21.8974 10.4273 22.1729
275 2 9.35757 17.3602 15.48
4184 3 29.7643 20.7537 0.850001
544 3 1.14029 23.7036 25.4168
1374 3 28.9665 31.2569 7.856
7 1 12.0278 24.2563 10.8081
483 2 4.86995 24.2626 21.6694
105 1 2.75023 28.0247 20.0986
418 2 2.53681 23.9689 13.4966
3859 3 8.37833 24.244 26.9256
128 1 6.5974 29.5269 1.5399
2228 3 15.0449 29.954 19.8034
304 2 33.4223 17.0761 12.2405
389 2 9.35696 24.4604 14.6143
2745 3 19.3519 7.73631 24.9797
4195 3 28.0614 29.2523 4.87632
1989 3 28.9762 23.2006 30.5918
614 3 6.74753 20.8016 5.60511
10 1 22.3752 21.3254 7.19584
3548 3 29.4422 16.5622 20.2476
3289 3 26.6391 22.4948 -2.49436
2261 3 19.4972 23.7471 13.8578
263 2 4.45011 27.05 10.5078
231 1 3.0126 20.8419 12.85
341 2 10.9478 18.8014 10.6544
3514 3 26.2822 22.7032 22.9351
1840 3 12.6479 10.3329 12.5023
465 2 31.9298 24.7346 9.66625
1862 3 19.0598 17.1018 28.1323
3472 3 22.0384 14.462 22.1662
226 1 5.51885 19.4215 10.4274
4099 3 10.3021 14.7865 9.85843
2584 3 31.977 15.9923 5.72078
3202 3 18.5286 25.8699 4.67108
1830 3 14.9501 28.589 10.9037
332 2 1.42978 18.0778 9.82344
3132 3 19.0279 29.6775 17.8571
501 2 2.38002 29.3773 19.05
3821 3 29.2962 23.8275 5.78454
427 2 8.72449 25.1555 10.4716
2111 3 20.3324 27.3223 3.50267
3843 3 4.65945 13.0053 9.97204
322 2 0.77288 20.7688 7.47913
1706 3 28.0417 13.9017 26.2344
2139 3 19.7725 24.5858 11.795
2915 3 1.59819 22.6475 23.5324
4394 3 0.933567 8.28796 28.6191
309 2 31.1054 21.815 10.1851
58 1 1.17157 24.2714 5.74498
1532 3 16.8906 22.0976 19.3337
3313 3 25.1339 28.9697 12.5561
1228 3 24.1872 16.5623 0.318084
1209 3 11.1022 26.0473 24.0227
841 3 22.5138 14.3512 6.18761
1398 3 1.92531 25.2329 26.7179
4127 3 20.2227 16.8408 21.8982
493 2 6.68106 18.2993 18.0949
3792 3 12.1047 16.7094 16.2621
2462 3 33.1893 31.2465 20.7758
1137 3 32.171 13.8311 4.67011
1171 3 11.1864 29.2078 25.0796
2948 3 14.0718 19.2419 27.5507
3401 3 6.00424 16.8354 0.599971
2800 3 7.40857 20.9619 31.1118
68 1 32.8596 15.2903 15.3689
1063 3 18.1901 28.7447 22.3461
3364 3 33.0029 7.71489 30.3758
890 3 13.4015 21.5266 8.83955
3858 3 28.7687 27.7642 21.6731
3759 3 17.7657 18.5889 17.1244
1179 3 24.982 10.7061 11.278
323 2 31.2152 16.9738 12.6748
407 2 8.27359 31.0184 15.2258
63 1 30.4048 28.4387 17.3504
2021 3 1.95327 11.5267 6.53408
2057 3 6.90282 18.9119 6.05395
478 2 32.4365 21.5473 20.2967
1474 3 13.8666 18.1429 17.6239
1723 3 8.97213 9.26644 23.2406
145 1 11.4672 22.5001 18.112
3521 3 27.593 31.7774 16.6646
2785 3 28.0656 24.3956 3.82203
934 3 31.6696 29.1795 5.78152
609 3 25.0115 7.94013 19.8767
2168 3 7.96715 8.76425 13.5774
856 3 9.52657 20.3175 31.2039
1814 3 21.4711 19.6918 29.2721
3809 3 17.0273 11.2263 16.6119
4535 3 11.0242 29.0881 18.69
4492 3 23.2425 24.7866 9.29584
3791 3 18.6257 8.67348 17.4814
4183 3 17.7499 14.0256 28.0019
290 2 30.4857 17.537 17.6674
2735 3 23.3092 7.29278 3.90854
3180 3 6.12701 8.72565 14.6799
1815 3 31.3627 30.7434 17.6706
1924 3 26.8921 10.4858 15.9796
1468 3 26.8638 31.2035 18.8306
3584 3 24.682 22.7845 0.138427
3103 3 27.7042 22.836 18.2187
1700 3 24.431 25.9319 3.68756
1735 3 22.7081 16.471 29.06
498 2 33.1185 24.1221 20.232
284 2 0.967974 20.8203 4.8976
2968 3 24.3632 30.4799 13.5281
4624 4 16.1655 11.5482 9.38347
883 3 6.05926 8.17604 20.9169
681 3 13.1862 16.0022 11.6366
888 3 6.53253 17.69 23.4301
11 1 2.83061 15.4636 15.5042
3899 3 15.1663 12.1001 16.0134
3416 3 10.3461 14.0082 19.9727
246 1 7.94268 14.1267 13.0905
3860 3 13.5313 31.9667 13.452
1134 3 3.89211 13.131 13.7957
2152 3 28.2674 27.6491 8.16509
512 2 28.4354 17.3737 15.7425
2905 3 30.5888 31.9962 12.0513
211 1 5.61501 26.3823 8.95315
4130 3 30.1571 11.0001 10.8696
2938 3 9.47158 10.6743 21.4611
1424 3 2.67993 27.7906 5.35121
4298 3 32.8343 12.7092 9.90221
440 2 29.6432 27.9564 12.9025
4565 3 14.018 13.2084 23.2056
4323 3 23.683 15.0308 26.1851
1124 3 17.4043 11.3724 23.166
1741 3 26.0599 13.8884 5.05065
3950 3 14.6767 29.1021 12.7503
4455 3 22.1391 27.492 30.6731
3258 3 30.9176 9.54937 16.9255
302 2 8.47404 30.8887 18.8837
596 3 25.3954 19.1265 12.4737
4341 3 19.2003 9.82998 19.4237
3537 3 7.36507 16.2321 5.23297
2446 3 26.0997 23.4814 15.2468
4355 3 4.08678 32.0609 -1.30493
952 3 29.6246 13.6454 5.12433
705 3 19.1404 15.3603 24.5869
868 3 7.5361 21.1049 25.7806
2652 3 18.7183 10.3712 4.08627
1090 3 18.3067 30.0063 28.677
2993 3 3.34809 12.9041 23.5054
1893 3 5.84158 30.812 21.4783
2923 3 15.7222 23.6709 1.57134
1196 3 6.6603 13.2239 7.88533
2656 3 7.0061 20.351 3.49346
2504 3 17.0258 31.6389 12.3997
2528 3 22.2219 25.821 11.1639
2126 3 15.1972 25.6933 16.5378
2660 3 8.7045 23.8982 3.16586
1393 3 14.775 20.1089 19.0113
1912 3 25.5071 8.66924 14.1929
1470 3 24.8489 27.7756 1.68037
1836 3 27.6987 11.472 14.0131
3478 3 11.0245 13.1134 10.4032
225 1 30.0194 18.5523 8.13428
2655 3 0.740122 13.9103 19.0987
4098 3 10.4337 24.19 25.2233
3958 3 20.0942 19.7135 13.6869
1730 3 7.53326 9.2126 7.68438
446 2 9.28507 27.8203 9.81546
1055 3 17.8241 14.9676 14.7399
469 2 4.87529 29.066 12.6009
1737 3 22.8673 21.9763 1.05052
872 3 18.3548 29.9857 4.30546
2406 3 24.94 18.7713 18.6173
1282 3 3.56483 20.5441 25.6133
1078 3 15.6952 14.0859 16.026
3286 3 25.2576 11.6354 24.2151
2711 3 19.8544 18.6265 9.27741
2407 3 23.4187 21.0068 4.69884
2784 3 16.9995 22.6779 13.4299
260 2 7.01074 23.2815 23.0514
2582 3 11.248 31.2521 19.1574
2996 3 27.474 11.2396 24.206
2213 3 20.1632 31.1539 16.332
2906 3 18.9749 23.6796 22.2193
588 3 12.3986 20.0804 25.9219
1004 3 14.7442 14.5028 11.5679
967 3 22.1768 22.376 4.64614
4444 3 9.74102 19.5244 29.0518
3108 3 9.7811 17.9881 24.2989
3667 3 21.3795 18.7602 10.2104
3015 3 15.9226 19.312 22.7977
2170 3 8.9542 14.3435 15.1437
317 2 0.827422 29.6641 17.0332
3211 3 22.9862 32.6114 5.91669
4180 3 23.45 29.0747 6.36317
2302 3 18.0429 31.0855 16.9298
379 2 2.34696 30.2009 14.9109
4302 3 22.568 9.47964 26.076
2799 3 21.7636 20.1578 0.983352
2521 3 21.7273 29.636 30.0704
1689 3 9.16899 11.1049 15.2368
2357 3 27.18 24.4679 23.2392
4431 3 19.7001 15.7145 20.005
1657 3 12.9951 10.6367 4.87837
3940 3 3.59082 9.17617 5.92176
2720 3 14.3882 10.4619 14.8773
1105 3 7.24477 32.1041 21.0061
3812 3 7.68323 27.9757 -1.12398
459 2 28.6393 25.3725 14.4065
1535 3 21.9551 29.7789 14.6985
4158 3 16.615 26.6876 28.5099
3962 3 21.2989 31.2894 -0.564227
4464 3 1.87417 12.7165 25.3298
3898 3 7.74907 9.85287 21.4799
3850 3 23.6387 20.6597 13.4271
3544 3 29.7808 12.0411 29.6388
3321 3 11.4433 11.773 17.8119
2814 3 27.9037 8.84731 5.02327
1701 3 6.19002 32.0886 10.8733
3242 3 6.03815 30.1955 7.55606
2943 3 17.1776 25.4234 21.3408
386 2 10.2194 28.9878 15.4044
4350 3 26.6421 12.1556 11.8517
4 1 10.01 28.0203 13.0313
851 3 17.7341 9.09738 23.1735
1249 3 1.94224 29.9089 5.93953
3773 3 26.0113 13.9406 28.4032
1885 3 14.8619 24.5604 4.76489
2023 3 13.4711 32.5706 27.6108
4281 3 16.5971 28.2003 4.4409
2044 3 19.1936 19.2351 18.165
2482 3 32.7947 31.2001 11.1333
723 3 18.9843 16.8367 13.886
2308 3 22.5887 13.3449 26.6259
2255 3 0.956673 9.20714 11.0898
3606 3 28.8064 7.63149 12.9003
1418 3 17.3509 12.572 2.97848
1784 3 15.6306 32.4716 30.6096
2615 3 19.4259 25.4306 21.0868
1215 3 30.8235 28.7048 14.2508
1301 3 7.20026 19.0151 28.1338
3282 3 20.3408 18.5497 15.5379
457 2 6.17428 29.9891 16.5462
3592 3 21.4236 22.0434 16.7326
1572 3 22.3904 17.8237 23.6571
3808 3 23.7876 14.9011 18.232
2509 3 17.2669 12.5135 7.41362
4231 3 21.2812 15.6616 18.6009
1956 3 22.2212 8.71384 12.3403
2194 3 9.70279 11.725 18.8956
577 3 9.64564 31.7245 17.9325
2496 3 12.5747 31.5861 2.63841
2980 3 31.5812 30.9338 23.9642
1059 3 20.8439 26.197 22.8796
871 3 10.3914 8.31114 17.2121
2169 3 31.5836 10.8865 8.92498
1975 3 19.4862 22.0001 12.5227
24 1 31.6049 15.7606 9.3396
249 1 1.70067 14.8077 17.545
444 2 13.1529 26.9562 13.7251
887 3 20.9455 19.6564 7.96174
2510 3 6.49932 12.4483 30.404
1292 3 6.5738 14.1682 16.4938
2306 3 17.779 24.3388 12.5222
1207 3 24.6822 17.2325 9.27625
205 1 13.9878 23.1819 26.274
2437 3 27.8914 11.1617 2.59461
473 2 14.5205 22.9956 11.8543
718 3 19.8917 26.8875 15.3589
3078 3 16.2906 15.5117 -1.66846
2555 3 26.3691 25.4396 25.2143
3833 3 25.6032 29.8106 19.0873
2066 3 19.6617 14.8094 21.9959
4585 3 16.3318 30.5975 10.025
1148 3 24.5987 18.1051 16.5293
4144 3 24.2043 15.461 5.47366
3911 3 28.1345 24.3011 7.72313
3914 3 2.23408 10.4246 11.7728
3523 3 18.2008 18.0431 19.2315
1970 3 17.9572 22.6302 11.7153
3487 3 28.071 27.1044 19.7816
513 3 3.09949 13.1124 20.009
2285 3 31.6446 16.8396 21.6655
2135 3 20.8054 24.9514 19.8016
3845 3 23.4436 22.8567 18.1601
1954 3 32.7964 11.8087 24.4776
3145 3 21.2137 22.4922 26.8313
3483 3 10.7952 19.9408 -2.26196
3522 3 25.3715 9.44093 8.16859
4386 3 32.0678 7.69048 23.9708
1053 3 21.5246 23.2386 8.98609
3991 3 21.1383 31.4416 25.9812
1139 3 2.10263 17.1918 23.5843
420 2 9.56036 27.8033 18.534
2706 3 26.8568 22.7364 11.5255
3105 3 32.1441 12.6958 7.61756
829 3 12.505 13.709 8.99155
638 3 5.26545 23.8969 23.882
3071 3 16.4826 21.633 23.024
2205 3 12.0645 27.6945 23.2911
2972 3 31.8107 29.1808 3.03857
984 3 23.3793 17.2087 13.379
3358 3 11.5952 32.7945 11.596
4137 3 27.7744 13.1629 5.36267
2572 3 7.39747 31.8951 24.9149
4371 3 28.1119 25.5963 5.63691
2305 3 5.58827 13.1448 19.9383
2353 3 17.2693 16.0164 0.530886
1518 3 18.3868 30.5539 13.471
1776 3 1.38602 27.5474 26.0808
3088 3 19.4225 18.3977 3.30831
4473 3 18.8005 24.3062 6.1289
804 3 4.47887 17.2072 23.5574
370 2 7.5638 24.7822 21.0859
4339 3 30.5028 11.8539 14.4106
2546 3 33.2593 32.2869 27.6543
2858 3 15.1149 13.1599 1.32968
1772 3 31.1471 26.46 0.322673
3949 3 4.32928 11.2815 19.8524
1317 3 14.2973 11.1795 0.926692
1631 3 21.0617 20.1988 11.6256
1308 3 15.8424 14.1555 -0.12309
315 2 25.8313 31.1709 17.2379
3067 3 3.57278 7.59731 19.3458